 Gaussian 03, Revision D.02,
 Gaussian 03:  AM64L-G03RevD.02  1-Mar-2006

 ----------------------------------------
 #p opt freq=noraman b3lyp pop=npa genecp
 ----------------------------------------

 -----------------------
 Rh(CO)+Al(OH)4-,singlet
 -----------------------
 Symbolic Z-matrix:
 Charge =  0 Multiplicity = 1

 SCF Done:  E(RB+HF-LYP) =  -769.599997211     A.U. after   19 cycles
 SCF Done:  E(RB+HF-LYP) =  -769.632354600     A.U. after   17 cycles
 SCF Done:  E(RB+HF-LYP) =  -769.643500799     A.U. after   17 cycles
 SCF Done:  E(RB+HF-LYP) =  -769.645801351     A.U. after   16 cycles
 SCF Done:  E(RB+HF-LYP) =  -769.646567992     A.U. after   15 cycles
 SCF Done:  E(RB+HF-LYP) =  -769.647015522     A.U. after   15 cycles
 SCF Done:  E(RB+HF-LYP) =  -769.647477968     A.U. after   20 cycles
 SCF Done:  E(RB+HF-LYP) =  -769.647845724     A.U. after   15 cycles
 SCF Done:  E(RB+HF-LYP) =  -769.647863788     A.U. after   16 cycles
 SCF Done:  E(RB+HF-LYP) =  -769.648086497     A.U. after   15 cycles
 SCF Done:  E(RB+HF-LYP) =  -769.648717436     A.U. after   10 cycles
 SCF Done:  E(RB+HF-LYP) =  -769.648718094     A.U. after   10 cycles
 SCF Done:  E(RB+HF-LYP) =  -769.648716898     A.U. after   11 cycles
 SCF Done:  E(RB+HF-LYP) =  -769.648718049     A.U. after   11 cycles
 SCF Done:  E(RB+HF-LYP) =  -769.648717300     A.U. after   11 cycles
 SCF Done:  E(RB+HF-LYP) =  -769.648718103     A.U. after   10 cycles
 SCF Done:  E(RB+HF-LYP) =  -769.648716315     A.U. after   12 cycles
 SCF Done:  E(RB+HF-LYP) =  -769.648718020     A.U. after   12 cycles
 SCF Done:  E(RB+HF-LYP) =  -769.648717680     A.U. after   11 cycles
 Optimization completed.
    -- Stationary point found.
 Normal termination of Gaussian 03 at Sat Feb 16 03:51:55 2008.

 ----------------------------------------------------------------
 #P Geom=AllCheck Guess=Read SCRF=Check GenChk RB3LYP/GenECP Freq
 ----------------------------------------------------------------

 Rh(CO)+Al(OH)4-,singlet
 -----------------------
 Redundant internal coordinates taken from checkpoint file:
 rhco.aloh4.singlet.b3lyp.ad.opt.fre.chk
 Charge =  0 Multiplicity = 1

                         Standard orientation:
 ---------------------------------------------------------------------
 Center     Atomic     Atomic              Coordinates (Angstroms)
 Number     Number      Type              X           Y           Z
 ---------------------------------------------------------------------
    1         13             0       -1.907863   -0.200666    0.043485
    2          8             0       -0.298121   -1.157158   -0.015759
    3          8             0       -2.679128   -0.497113   -1.493911
    4          8             0       -2.733157   -0.299675    1.563727
    5          8             0       -0.922716    1.362410    0.002118
    6          1             0       -3.276716   -1.044520    1.825727
    7          1             0       -0.173826   -1.680099   -0.818410
    8          1             0       -1.119661    1.968709   -0.721019
    9          1             0       -3.627790   -0.617324   -1.572780
   10         45             0        0.953283    0.453649   -0.016506
   11          6             0        2.520182   -0.493874    0.049518
   12          8             0        3.505795   -1.092097    0.089683
 ---------------------------------------------------------------------

 SCF Done:  E(RB+HF-LYP) =  -769.648717680     A.U. after    1 cycles

 The electronic state is 1-A.
 Alpha  occ. eigenvalues --  -56.07508 -19.23625 -19.19070 -19.17609 -19.12105
 Alpha  occ. eigenvalues --  -19.11544 -10.31539  -4.15145  -3.21732  -2.70609
 Alpha  occ. eigenvalues --   -2.70483  -2.70382  -2.01766  -2.00108  -1.96013
 Alpha  occ. eigenvalues --   -1.14661  -1.02693  -1.01114  -0.96219  -0.95413
 Alpha  occ. eigenvalues --   -0.58653  -0.55905  -0.51111  -0.49738  -0.48129
 Alpha  occ. eigenvalues --   -0.47198  -0.46915  -0.46676  -0.42080  -0.40389
 Alpha  occ. eigenvalues --   -0.39240  -0.35490  -0.34828  -0.31679  -0.30452
 Alpha  occ. eigenvalues --   -0.29754  -0.29282  -0.27160  -0.25358  -0.23518
 Alpha virt. eigenvalues --   -0.13362  -0.04607  -0.04053  -0.03350  -0.00916
 Alpha virt. eigenvalues --    0.00397   0.00740   0.01295   0.01962   0.02351
 Alpha virt. eigenvalues --    0.03245   0.03514   0.04205   0.04743   0.05291

 Mulliken atomic charges:
              1
     1  Al   1.675960
     2  O   -0.525416
     3  O   -0.693029
     4  O   -0.653429
     5  O   -0.556098
     6  H    0.044474
     7  H    0.148951
     8  H    0.104947
     9  H    0.060837
    10  Rh   0.702756
    11  C   -0.263356
    12  O   -0.046597
 Sum of Mulliken charges=   0.00000

 Dipole moment (field-independent basis, Debye):
    X=    -0.0058    Y=     0.8239    Z=    -1.6599  Tot=     1.8531
 Quadrupole moment (field-independent basis, Debye-Ang):
   XX=   -65.2789   YY=   -58.6839   ZZ=   -71.3892
   XY=     7.1123   XZ=     1.3848   YZ=    -2.6721

  Exact polarizability: 117.953  -9.519  74.547   1.522  -1.313  74.513
 Approx polarizability: 170.690 -29.484 122.623   1.648  -2.295 112.542

 Summary of Natural Population Analysis:

                                       Natural Population
                Natural  -----------------------------------------------
    Atom  No    Charge         Core      Valence    Rydberg      Total
 -----------------------------------------------------------------------
     Al    1    2.10630      9.99824     0.87957    0.01589    10.89370
      O    2   -1.05982      1.99990     7.03358    0.02634     9.05982
      O    3   -1.23069      1.99988     7.21130    0.01951     9.23069
      O    4   -1.21835      1.99987     7.19859    0.01988     9.21835
      O    5   -1.15456      1.99990     7.13130    0.02336     9.15456
      H    6    0.49831      0.00000     0.49441    0.00728     0.50169
      H    7    0.51971      0.00000     0.47411    0.00618     0.48029
      H    8    0.51901      0.00000     0.47484    0.00615     0.48099
      H    9    0.49909      0.00000     0.49421    0.00669     0.50091
     Rh   10    0.47879     35.97987     8.52027    0.02107    44.52121
      C   11    0.53352      1.99968     3.41480    0.05200     5.46648
      O   12   -0.49132      1.99975     6.45307    0.03850     8.49132
 =======================================================================
   * Total *    0.00000     57.97709    49.78006    0.24285   108.00000

                     1                      2                      3
                     A                      A                      A
 Frequencies --    44.1976                85.2175                94.3962
 Red. masses --     6.2395                14.4760                 9.9932
 Frc consts  --     0.0072                 0.0619                 0.0525
 IR Inten    --     0.8954                 2.4379                 1.4187

                     4                      5                      6
                     A                      A                      A
 Frequencies --   121.4884               150.1386               165.0429
 Red. masses --     1.9625                 3.7345                 2.4100
 Frc consts  --     0.0171                 0.0496                 0.0387
 IR Inten    --    63.9781                 2.9897                84.1501

                     7                      8                      9
                     A                      A                      A
 Frequencies --   220.3549               225.8383               256.3034
 Red. masses --     4.9746                 4.6036                 1.1613
 Frc consts  --     0.1423                 0.1383                 0.0449
 IR Inten    --     2.8950                 6.1601                50.7219

                    10                     11                     12
                     A                      A                      A
 Frequencies --   286.4518               420.4001               438.4586
 Red. masses --     4.5207                 3.2470                 2.5218
 Frc consts  --     0.2186                 0.3381                 0.2856
 IR Inten    --    25.8658               114.5671                24.6127

                    13                     14                     15
                     A                      A                      A
 Frequencies --   475.4283               508.5193               517.2002
 Red. masses --     6.1275                 9.4567                 9.2870
 Frc consts  --     0.8160                 1.4408                 1.4637
 IR Inten    --    71.9515                75.4998                22.7031

                    16                     17                     18
                     A                      A                      A
 Frequencies --   524.5681               553.2842               598.3360
 Red. masses --     6.9395                 3.4682                 1.6641
 Frc consts  --     1.1251                 0.6255                 0.3510
 IR Inten    --    11.3896                40.1168                77.8336

                    19                     20                     21
                     A                      A                      A
 Frequencies --   616.2719               638.4363               651.5692
 Red. masses --     2.6983                 1.8476                 1.5501
 Frc consts  --     0.6038                 0.4437                 0.3877
 IR Inten    --    61.5067                65.6595               189.5307

                    22                     23                     24
                     A                      A                      A
 Frequencies --   775.7211               842.5308               876.3304
 Red. masses --     2.5833                 4.1079                 1.2221
 Frc consts  --     0.9159                 1.7181                 0.5530
 IR Inten    --    98.3078               189.3706                45.5525

                    25                     26                     27
                     A                      A                      A
 Frequencies --   908.1862              2061.0038              3816.6682
 Red. masses --     1.2698                13.2976                 1.0661
 Frc consts  --     0.6171                33.2798                 9.1495
 IR Inten    --   179.5897               800.4119                83.1835

                    28                     29                     30
                     A                      A                      A
 Frequencies --  3845.7062              3918.5948              3931.9129
 Red. masses --     1.0661                 1.0673                 1.0675
 Frc consts  --     9.2896                 9.6556                 9.7232
 IR Inten    --    96.3119                58.2935                69.4710

 - Thermochemistry -
 -------------------
 Temperature   298.150 Kelvin.  Pressure   1.00000 Atm.
 Atom  1 has atomic number 13 and mass  26.98154

 Molecular mass:   225.89221 amu.
 Principal axes and moments of inertia in atomic units:
                           1         2         3
     EIGENVALUES --   681.604432927.503103022.96900
           X            1.00000  -0.00260   0.00167
           Y            0.00265   0.99951  -0.03125
           Z           -0.00159   0.03125   0.99951
 This molecule is an asymmetric top.
 Rotational symmetry number  1.
 Warning -- assumption of classical behavior for rotation
           may cause significant error
 Rotational temperatures (Kelvin)      0.12707     0.02959     0.02865
 Rotational constants (GHZ):           2.64778     0.61648     0.59701
 Zero-point vibrational energy     170877.9 (Joules/Mol)
                                   40.84080 (Kcal/Mol)
 Warning -- explicit consideration of  19 degrees of freedom as
           vibrations may cause significant error
 Vibrational temperatures:     63.59   122.61   135.81   174.79   216.02
          (Kelvin)            237.46   317.04   324.93   368.76   412.14
                              604.86   630.84   684.03   731.64   744.13
                              754.74   796.05   860.87   886.68   918.57
                              937.46  1116.09  1212.21  1260.84  1306.68
                             2965.32  5491.33  5533.11  5637.98  5657.14

 Zero-point correction=                           0.065084 (Hartree/Particle)
 Thermal correction to Energy=                    0.076674
 Thermal correction to Enthalpy=                  0.077618
 Thermal correction to Gibbs Free Energy=         0.026698
 Sum of electronic and zero-point Energies=           -769.583634
 Sum of electronic and thermal Energies=              -769.572044
 Sum of electronic and thermal Enthalpies=            -769.571100
 Sum of electronic and thermal Free Energies=         -769.622019

                     E (Thermal)             CV                S
                      KCal/Mol        Cal/Mol-Kelvin    Cal/Mol-Kelvin
 Total                   48.114             39.739            107.170
 Electronic               0.000              0.000              0.000
 Translational            0.889              2.981             42.147
 Rotational               0.889              2.981             30.179
 Vibrational             46.336             33.778             34.843
 Vibration  1             0.595              1.980              5.061
 Vibration  2             0.601              1.959              3.767
 Vibration  3             0.603              1.953              3.567
 Vibration  4             0.609              1.931              3.077
 Vibration  5             0.618              1.903              2.670
 Vibration  6             0.623              1.885              2.491
 Vibration  7             0.647              1.810              1.956
 Vibration  8             0.650              1.802              1.912
 Vibration  9             0.666              1.752              1.687
 Vibration 10             0.684              1.699              1.495
 Vibration 11             0.783              1.426              0.891
 Vibration 12             0.799              1.386              0.831
 Vibration 13             0.832              1.305              0.723
 Vibration 14             0.864              1.231              0.637
 Vibration 15             0.872              1.212              0.616
 Vibration 16             0.880              1.196              0.599
 Vibration 17             0.909              1.133              0.537
 Vibration 18             0.956              1.035              0.453
 Vibration 19             0.976              0.997              0.423

 Normal termination of Gaussian 03 at Sat Feb 16 05:19:14 2008.
